<UPF version="2.0.1">
  <PP_INFO>
    Generated using "atomic" code by A. Dal Corso  v.7.3
    Author: ADC
    Generation date: 20Apr2024
    Pseudopotential type: USPP
    Element: Ba
    Functional: PBESOL
    Suggested minimum cutoff for wavefunctions:  38. Ry
    Suggested minimum cutoff for charge density: 193. Ry
    The Pseudo was generated with a Fully-Relativistic Calculation
    Local Potential by smoothing AE potential with Bessel fncs, cutoff radius:   2.0000
    Pseudopotential contains additional information for spin-orbit calculations.
    Valence configuration: 
    nl pn  l   occ       Rcut    Rcut US       E pseu
    5S  1  0  2.00      1.400      1.900    -2.474041
    6S  2  0  2.00      1.400      1.900    -0.238563
    5P  2  1  2.00      1.600      2.100    -1.483358
    5P  2  1  4.00      1.600      2.100    -1.329864
    Generation configuration:
    5S  1  0  2.00      1.400      1.900    -2.474040
    6S  2  0  2.00      1.400      1.900    -0.238566
    6S  2  0  0.00      1.400      1.900     6.000000
    5P  2  1  2.00      1.600      2.100    -1.483358
    5P  2  1  4.00      1.600      2.100    -1.329861
    6P  3  1  0.00      1.600      2.100     6.000000
    6P  3  1  0.00      1.600      2.100     6.000000
    5D  3  2  0.00      1.500      2.100     0.300000
    5D  3  2  0.00      1.500      2.100     0.300000
    5D  3  2  0.00      1.500      2.100     4.050000
    5D  3  2  0.00      1.500      2.100     4.050000
    Pseudization used: troullier-martins
    <PP_INPUTFILE>
@input
title='Ba',
zed=56.,
rel=2,
config='[Xe] 6s2 6p0 5d-1',
iswitch=3,
dft='PBESOL'
/
@inputp
lpaw=.false.,
pseudotype=3,
file_pseudopw='Ba.rel-pbesol-spn-rrkjus_psl.1.0.0.UPF',
author='ADC',
lloc=-1,
rcloc=2.0,
which_augfun='PSQ',
rmatch_augfun_nc=.true.,
nlcc=.true.,
new_core_ps=.true.,
rcore=1.6,
tm=.true.
/
7
5S  1  0  2.00  0.00  1.40  1.90  0.0
6S  2  0  2.00  0.00  1.40  1.90  0.0
6S  2  0  0.00  6.00  1.40  1.90  0.0
5P  2  1  6.00  0.00  1.60  2.10  0.0
6P  3  1  0.00  6.00  1.60  2.10  0.0
5D  3  2  0.00  0.30  1.50  2.10  0.0
5D  3  2  0.00  4.05  1.50  2.10  0.0
    </PP_INPUTFILE>
  </PP_INFO>
    <!-- END OF HUMAN READABLE SECTION -->
  <PP_HEADER generated="Generated using 'atomic' code by A. Dal Corso  v.7.3" author="ADC" date="20Apr2024" comment="" element="Ba" pseudo_type="USPP" relativistic="full" is_ultrasoft="true" is_paw="false" is_coulomb="false" has_so="true" has_wfc="false" has_gipaw="false" paw_as_gipaw="false" core_correction="true" with_metagga_info="false" functional="PBESOL" z_valence="10.0000000000000" total_psenergy="-62.6031774118172" wfc_cutoff="37.7228488141048" rho_cutoff="192.542238156457" l_max="2" l_max_rho="4" l_local="-1" mesh_size="1251" number_of_wfc="4" number_of_proj="11"/>
  <PP_MESH mesh="1251" dx="1.250000000000000E-002" xmin="-7.00000000000000" rmax="100.000000000000" zmesh="56.0000000000000">
    <PP_R>
   1.628360652775922E-05   1.648842908337540E-05   1.669582798958182E-05
   1.690583565287953E-05   1.711848488739321E-05   1.733380891999837E-05
   1.755184139551319E-05   1.777261638195556E-05   1.799616837586626E-05
   1.822253230769919E-05   1.845174354727923E-05   1.868383790932890E-05
   1.891885165906447E-05   1.915682151786244E-05   1.939778466899746E-05
   1.964177876345211E-05   1.988884192580006E-05   2.013901276016308E-05
   2.039233035624299E-05   2.064883429542960E-05   2.090856465698526E-05
   2.117156202430737E-05   2.143786749126966E-05   2.170752266864312E-05
   2.198056969059787E-05   2.225705122128660E-05   2.253701046151097E-05
   2.282049115547186E-05   2.310753759760443E-05   2.339819463949929E-05
   2.369250769691056E-05   2.399052275685226E-05   2.429228638478382E-05
   2.459784573188602E-05   2.490724854242855E-05   2.522054316123003E-05
   2.553777854121204E-05   2.585900425104813E-05   2.618427048290898E-05
   2.651362806030512E-05   2.684712844602808E-05   2.718482375019163E-05
   2.752676673837411E-05   2.787301083986307E-05   2.822361015600387E-05
   2.857861946865293E-05   2.893809424873762E-05   2.930209066492368E-05
   2.967066559239168E-05   3.004387662172395E-05   3.042178206790311E-05
   3.080444097942397E-05   3.119191314751999E-05   3.158425911550573E-05
   3.198154018823696E-05   3.238381844168955E-05   3.279115673265906E-05
   3.320361870858216E-05   3.362126881748174E-05   3.404417231803708E-05
   3.447239528978052E-05   3.490600464342262E-05   3.534506813130708E-05
   3.578965435799712E-05   3.623983279099525E-05   3.669567377159748E-05
   3.715724852588445E-05   3.762462917585060E-05   3.809788875067335E-05
   3.857710119812419E-05   3.906234139612295E-05   3.955368516443780E-05
   4.005120927653220E-05   4.055499147156084E-05   4.106511046651671E-05
   4.158164596853060E-05   4.210467868732559E-05   4.263429034782810E-05
   4.317056370293756E-05   4.371358254645684E-05   4.426343172618497E-05
   4.482019715717497E-05   4.538396583515818E-05   4.595482585013750E-05
   4.653286640015175E-05   4.711817780521288E-05   4.771085152141875E-05
   4.831098015524333E-05   4.891865747800658E-05   4.953397844052658E-05
   5.015703918795558E-05   5.078793707480299E-05   5.142677068014719E-05
   5.207363982303871E-05   5.272864557809726E-05   5.339189029130464E-05
   5.406347759599670E-05   5.474351242905612E-05   5.543210104730908E-05
   5.612935104412822E-05   5.683537136624405E-05   5.755027233076832E-05
   5.827416564243121E-05   5.900716441103539E-05   5.974938316912985E-05
   6.050093788990556E-05   6.126194600531668E-05   6.203252642442952E-05
   6.281279955200229E-05   6.360288730729874E-05   6.440291314313805E-05
   6.521300206518471E-05   6.603328065148092E-05   6.686387707222465E-05
   6.770492110979656E-05   6.855654417903864E-05   6.941887934778803E-05
   7.029206135766934E-05   7.117622664514804E-05   7.207151336284925E-05
   7.297806140114405E-05   7.389601241000779E-05   7.482550982115321E-05
   7.576669887044179E-05   7.671972662057749E-05   7.768474198408516E-05
   7.866189574657867E-05   7.965134059032145E-05   8.065323111808333E-05
   8.166772387729773E-05   8.269497738452224E-05   8.373515215020733E-05
   8.478841070377638E-05   8.585491761902117E-05   8.693483953981720E-05
   8.802834520616163E-05   8.913560548053959E-05   9.025679337462168E-05
   9.139208407629734E-05   9.254165497704865E-05   9.370568569966758E-05
   9.488435812632277E-05   9.607785642697893E-05   9.728636708817365E-05
   9.851007894215663E-05   9.974918319639463E-05   1.010038734634483E-04
   1.022743457912247E-04   1.035607986936097E-04   1.048634331814866E-04
   1.061824527941445E-04   1.075180636310814E-04   1.088704743842078E-04
   1.102398963704554E-04   1.116265435647957E-04   1.130306326336741E-04
   1.144523829688640E-04   1.158920167217480E-04   1.173497588380288E-04
   1.188258370928781E-04   1.203204821265262E-04   1.218339274803005E-04
   1.233664096331166E-04   1.249181680384288E-04   1.264894451616451E-04
   1.280804865180125E-04   1.296915407109802E-04   1.313228594710435E-04
   1.329746976950775E-04   1.346473134861656E-04   1.363409681939279E-04
   1.380559264553584E-04   1.397924562361745E-04   1.415508288726874E-04
   1.433313191141993E-04   1.451342051659323E-04   1.469597687325005E-04
   1.488082950619251E-04   1.506800729902059E-04   1.525753949864526E-04
   1.544945571985827E-04   1.564378594995969E-04   1.584056055344332E-04
   1.603981027674128E-04   1.624156625302826E-04   1.644586000708597E-04
   1.665272346022915E-04   1.686218893529323E-04   1.707428916168483E-04
   1.728905728049588E-04   1.750652684968183E-04   1.772673184930538E-04
   1.794970668684569E-04   1.817548620257476E-04   1.840410567500134E-04
   1.863560082638304E-04   1.887000782830831E-04   1.910736330734808E-04
   1.934770435077884E-04   1.959106851237765E-04   1.983749381828983E-04
   2.008701877297083E-04   2.033968236520246E-04   2.059552407418504E-04
   2.085458387570616E-04   2.111690224838682E-04   2.138252018000647E-04
   2.165147917390732E-04   2.192382125547935E-04   2.219958897872695E-04
   2.247882543291785E-04   2.276157424931619E-04   2.304787960799977E-04
   2.333778624476335E-04   2.363133945810882E-04   2.392858511632291E-04
   2.422956966464452E-04   2.453434013252168E-04   2.484294414096003E-04
   2.515542990996381E-04   2.547184626607010E-04   2.579224264997835E-04
   2.611666912427540E-04   2.644517638125785E-04   2.677781575085307E-04
   2.711463920863919E-04   2.745569938396684E-04   2.780104956818230E-04
   2.815074372295444E-04   2.850483648870647E-04   2.886338319315334E-04
   2.922643985994719E-04   2.959406321743081E-04   2.996631070750171E-04
   3.034324049458765E-04   3.072491147473461E-04   3.111138328480984E-04
   3.150271631181993E-04   3.189897170234649E-04   3.230021137210056E-04
   3.270649801559675E-04   3.311789511594979E-04   3.353446695479359E-04
   3.395627862232545E-04   3.438339602747666E-04   3.481588590821070E-04
   3.525381584195139E-04   3.569725425614184E-04   3.614627043893641E-04
   3.660093455002724E-04   3.706131763160668E-04   3.752749161946791E-04
   3.799952935424495E-04   3.847750459279423E-04   3.896149201971924E-04
   3.945156725904008E-04   3.994780688601000E-04   4.045028843908030E-04
   4.095909043201594E-04   4.147429236616352E-04   4.199597474287341E-04
   4.252421907607835E-04   4.305910790503013E-04   4.360072480719649E-04
   4.414915441132035E-04   4.470448241064312E-04   4.526679557629454E-04
   4.583618177085077E-04   4.641272996206312E-04   4.699653023675949E-04
   4.758767381492051E-04   4.818625306393301E-04   4.879236151302245E-04
   4.940609386786710E-04   5.002754602539610E-04   5.065681508877339E-04
   5.129399938257041E-04   5.193919846812942E-04   5.259251315912016E-04
   5.325404553729234E-04   5.392389896842590E-04   5.460217811848232E-04
   5.528898896995873E-04   5.598443883844802E-04   5.668863638940705E-04
   5.740169165513584E-04   5.812371605197040E-04   5.885482239769172E-04
   5.959512492915371E-04   6.034473932013313E-04   6.110378269940362E-04
   6.187237366903754E-04   6.265063232293756E-04   6.343868026560172E-04
   6.423664063112440E-04   6.504463810243613E-04   6.586279893078574E-04
   6.669125095546718E-04   6.753012362379478E-04   6.837954801132975E-04
   6.923965684236073E-04   7.011058451064252E-04   7.099246710039521E-04
   7.188544240756758E-04   7.278964996136826E-04   7.370523104606705E-04
   7.463232872307128E-04   7.557108785327914E-04   7.652165511971462E-04
   7.748417905044710E-04   7.845881004179896E-04   7.944570038184557E-04
   8.044500427421039E-04   8.145687786215964E-04   8.248147925300021E-04
   8.351896854278389E-04   8.456950784132308E-04   8.563326129752049E-04
   8.671039512501781E-04   8.780107762816711E-04   8.890547922832847E-04
   9.002377249049888E-04   9.115613215027573E-04   9.230273514115965E-04
   9.346376062220067E-04   9.463939000599249E-04   9.582980698701809E-04
   9.703519757035266E-04   9.825575010072723E-04   9.949165529195784E-04
   1.007431062567453E-03   1.020102985368487E-03   1.032934301336401E-03
   1.045927015390421E-03   1.059083157668549E-03   1.072404783844785E-03
   1.085893975450321E-03   1.099552840198790E-03   1.113383512315597E-03
   1.127388152871400E-03   1.141568950119778E-03   1.155928119839153E-03
   1.170467905679006E-03   1.185190579510458E-03   1.200098441781246E-03
   1.215193821875182E-03   1.230479078476118E-03   1.245956599936494E-03
   1.261628804650529E-03   1.277498141432093E-03   1.293567089897347E-03
   1.309838160852181E-03   1.326313896684534E-03   1.342996871761650E-03
   1.359889692832327E-03   1.376994999434227E-03   1.394315464306306E-03
   1.411853793806441E-03   1.429612728334296E-03   1.447595042759522E-03
   1.465803546855336E-03   1.484241085737546E-03   1.502910540309114E-03
   1.521814827710301E-03   1.540956901774473E-03   1.560339753489650E-03
   1.579966411465845E-03   1.599839942408298E-03   1.619963451596653E-03
   1.640340083370159E-03   1.660973021618991E-03   1.681865490281727E-03
   1.703020753849101E-03   1.724442117874087E-03   1.746132929488394E-03
   1.768096577925469E-03   1.790336495050067E-03   1.812856155894484E-03
   1.835659079201543E-03   1.858748827974404E-03   1.882129010033292E-03
   1.905803278579218E-03   1.929775332764809E-03   1.954048918272303E-03
   1.978627827898821E-03   2.003515902148995E-03   2.028717029835067E-03
   2.054235148684508E-03   2.080074245955304E-03   2.106238359058975E-03
   2.132731576191422E-03   2.159558036971727E-03   2.186721933088963E-03
   2.214227508957166E-03   2.242079062378523E-03   2.270280945214921E-03
   2.298837564067933E-03   2.327753380967352E-03   2.357032914068398E-03
   2.386680738357687E-03   2.416701486368084E-03   2.447099848902544E-03
   2.477880575767059E-03   2.509048476512824E-03   2.540608421187744E-03
   2.572565341097380E-03   2.604924229575489E-03   2.637690142764230E-03
   2.670868200404199E-03   2.704463586634405E-03   2.738481550802294E-03
   2.772927408283982E-03   2.807806541314779E-03   2.843124399830184E-03
   2.878886502317444E-03   2.915098436677829E-03   2.951765861099760E-03
   2.988894504942903E-03   3.026490169633396E-03   3.064558729570337E-03
   3.103106133043663E-03   3.142138403163598E-03   3.181661638801759E-03
   3.221682015544122E-03   3.262205786655978E-03   3.303239284059005E-03
   3.344788919320661E-03   3.386861184655988E-03   3.429462653942039E-03
   3.472599983745065E-03   3.516279914360608E-03   3.560509270866699E-03
   3.605294964190276E-03   3.650643992187037E-03   3.696563440734871E-03
   3.743060484841032E-03   3.790142389763269E-03   3.837816512145012E-03
   3.886090301164875E-03   3.934971299700607E-03   3.984467145507675E-03
   4.034585572412694E-03   4.085334411521830E-03   4.136721592444445E-03
   4.188755144532104E-03   4.241443198133181E-03   4.294793985863253E-03
   4.348815843891443E-03   4.403517213242975E-03   4.458906641118102E-03
   4.514992782227615E-03   4.571784400145180E-03   4.629290368676636E-03
   4.687519673246560E-03   4.746481412302263E-03   4.806184798735426E-03
   4.866639161321654E-03   4.927853946178093E-03   4.989838718239418E-03
   5.052603162752376E-03   5.116157086789109E-03   5.180510420779560E-03
   5.245673220063088E-03   5.311655666459656E-03   5.378468069860755E-03
   5.446120869840344E-03   5.514624637286069E-03   5.583990076050962E-03
   5.654228024625953E-03   5.725349457833409E-03   5.797365488541959E-03
   5.870287369402931E-03   5.944126494608565E-03   6.018894401672401E-03
   6.094602773232034E-03   6.171263438874545E-03   6.248888376984918E-03
   6.327489716617657E-03   6.407079739391996E-03   6.487670881410919E-03
   6.569275735204327E-03   6.651907051696661E-03   6.735577742199233E-03
   6.820300880427663E-03   6.906089704544670E-03   6.992957619228553E-03
   7.080918197767731E-03   7.169985184181550E-03   7.260172495367844E-03
   7.351494223277477E-03   7.443964637116221E-03   7.537598185574384E-03
   7.632409499084407E-03   7.728413392106920E-03   7.825624865445528E-03
   7.924059108590712E-03   8.023731502093243E-03   8.124657619967387E-03
   8.226853232124394E-03   8.330334306836584E-03   8.435117013232405E-03
   8.541217723822931E-03   8.648653017060047E-03   8.757439679926898E-03
   8.867594710560889E-03   8.979135320909659E-03   9.092078939420522E-03
   9.206443213763647E-03   9.322246013589578E-03   9.439505433321387E-03
   9.558239794981969E-03   9.678467651056915E-03   9.800207787393331E-03
   9.923479226135208E-03   1.004830122869564E-02   1.017469329876648E-02
   1.030267518536583E-02   1.043226688592386E-02   1.056348864940742E-02
   1.069636097948403E-02   1.083090463772560E-02   1.096714064685246E-02
   1.110509029401822E-02   1.124477513413590E-02   1.138621699324596E-02
   1.152943797192664E-02   1.167446044874727E-02   1.182130708376490E-02
   1.197000082206499E-02   1.212056489734669E-02   1.227302283555307E-02
   1.242739845854718E-02   1.258371588783417E-02   1.274199954833041E-02
   1.290227417217987E-02   1.306456480261860E-02   1.322889679788782E-02
   1.339529583519611E-02   1.356378791473159E-02   1.373439936372448E-02
   1.390715684056080E-02   1.408208733894780E-02   1.425921819213174E-02
   1.443857707716880E-02   1.462019201924969E-02   1.480409139607858E-02
   1.499030394230728E-02   1.517885875402497E-02   1.536978529330461E-02
   1.556311339280640E-02   1.575887326043920E-02   1.595709548408064E-02
   1.615781103635643E-02   1.636105127947996E-02   1.656684797015274E-02
   1.677523326452635E-02   1.698623972322704E-02   1.719990031644325E-02
   1.741624842907738E-02   1.763531786596218E-02   1.785714285714286E-02
   1.808175806322562E-02   1.830919858079338E-02   1.853949994788974E-02
   1.877269814957187E-02   1.900882962353320E-02   1.924793126579699E-02
   1.949004043648129E-02   1.973519496563657E-02   1.998343315915681E-02
   2.023479380476476E-02   2.048931617807272E-02   2.074704004871935E-02
   2.100800568658377E-02   2.127225386807784E-02   2.153982588251751E-02
   2.181076353857446E-02   2.208510917080866E-02   2.236290564628330E-02
   2.264419637126286E-02   2.292902529799538E-02   2.321743693158020E-02
   2.350947633692182E-02   2.380518914577149E-02   2.410462156385721E-02
   2.440782037810350E-02   2.471483296394199E-02   2.502570729271382E-02
   2.534049193916532E-02   2.565923608903795E-02   2.598198954675359E-02
   2.630880274319671E-02   2.663972674359412E-02   2.697481325549417E-02
   2.731411463684607E-02   2.765768390418095E-02   2.800557474089588E-02
   2.835784150564186E-02   2.871453924081756E-02   2.907572368116984E-02
   2.944145126250229E-02   2.981177913049363E-02   3.018676514962664E-02
   3.056646791222974E-02   3.095094674763208E-02   3.134026173143390E-02
   3.173447369489354E-02   3.213364423443230E-02   3.253783572125910E-02
   3.294711131111609E-02   3.336153495414682E-02   3.378117140488875E-02
   3.420608623239101E-02   3.463634583045991E-02   3.507201742803301E-02
   3.551316909968378E-02   3.595986977625851E-02   3.641218925564671E-02
   3.687019821368728E-02   3.733396821521173E-02   3.780357172522633E-02
   3.827908212023499E-02   3.876057369970434E-02   3.924812169767327E-02
   3.974180229450838E-02   4.024169262880729E-02   4.074787080945186E-02
   4.126041592781258E-02   4.177940807010700E-02   4.230492832991324E-02
   4.283705882084104E-02   4.337588268936229E-02   4.392148412780269E-02
   4.447394838749700E-02   4.503336179210982E-02   4.559981175112369E-02
   4.617338677349726E-02   4.675417648149467E-02   4.734227162468942E-02
   4.793776409414414E-02   4.854074693676866E-02   4.915131436985905E-02
   4.976956179581878E-02   5.039558581706606E-02   5.102948425112795E-02
   5.167135614592430E-02   5.232130179524472E-02   5.297942275441908E-02
   5.364582185618628E-02   5.432060322676188E-02   5.500387230210770E-02
   5.569573584440705E-02   5.639630195874587E-02   5.710568011000490E-02
   5.782398113996363E-02   5.855131728461917E-02   5.928780219172412E-02
   6.003355093854340E-02   6.078868004983603E-02   6.155330751606209E-02
   6.232755281181859E-02   6.311153691450845E-02   6.390538232324250E-02
   6.470921307798108E-02   6.552315477891511E-02   6.634733460609114E-02
   6.718188133928418E-02   6.802692537811897E-02   6.888259876244594E-02
   6.974903519297240E-02   7.062637005215316E-02   7.151474042534516E-02
   7.241428512222636E-02   7.332514469848590E-02   7.424746147778589E-02
   7.518137957399929E-02   7.612704491372896E-02   7.708460525910793E-02
   7.805421023088850E-02   7.903601133182031E-02   8.003016197032257E-02
   8.103681748445549E-02   8.205613516619088E-02   8.308827428599051E-02
   8.413339611769187E-02   8.519166396370718E-02   8.626324318054078E-02
   8.734830120462511E-02   8.844700757848416E-02   8.955953397722433E-02
   9.068605423535860E-02   9.182674437396948E-02   9.298178262821161E-02
   9.415134947516231E-02   9.533562766202106E-02   9.653480223466368E-02
   9.774906056655723E-02   9.897859238803614E-02   1.002235898159492E-01
   1.014842473836776E-01   1.027607620715309E-01   1.040533333375264E-01
   1.053621631485539E-01   1.066874560119343E-01   1.080294190073741E-01
   1.093882618193212E-01   1.107641967697298E-01   1.121574388512351E-01
   1.135682057607469E-01   1.149967179334654E-01   1.164431985773234E-01
   1.179078737078649E-01   1.193909721835584E-01   1.208927257415584E-01
   1.224133690339140E-01   1.239531396642328E-01   1.255122782248089E-01
   1.270910283342142E-01   1.286896366753655E-01   1.303083530340685E-01
   1.319474303380473E-01   1.336071246964658E-01   1.352876954399437E-01
   1.369894051610790E-01   1.387125197554782E-01   1.404573084633016E-01
   1.422240439113354E-01   1.440130021555870E-01   1.458244627244223E-01
   1.476587086622406E-01   1.495160265737011E-01   1.513967066685068E-01
   1.533010428067481E-01   1.552293325448214E-01   1.571818771819216E-01
   1.591589818071203E-01   1.611609553470380E-01   1.631881106141130E-01
   1.652407643554802E-01   1.673192373024631E-01   1.694238542206880E-01
   1.715549439608306E-01   1.737128395099980E-01   1.758978780437604E-01
   1.781104009788344E-01   1.803507540264295E-01   1.826192872462680E-01
   1.849163551012803E-01   1.872423165129923E-01   1.895975349176073E-01
   1.919823783227920E-01   1.943972193651812E-01   1.968424353686001E-01
   1.993184084030243E-01   2.018255253442784E-01   2.043641779344843E-01
   2.069347628432750E-01   2.095376817297717E-01   2.121733413053463E-01
   2.148421533971703E-01   2.175445350125620E-01   2.202809084041476E-01
   2.230517011358359E-01   2.258573461496290E-01   2.286982818332686E-01
   2.315749520887345E-01   2.344878064016077E-01   2.374372999112998E-01
   2.404238934821734E-01   2.434480537755493E-01   2.465102533226267E-01
   2.496109705983151E-01   2.527506900959965E-01   2.559299024032312E-01
   2.591491042784094E-01   2.624087987283739E-01   2.657094950870151E-01
   2.690517090948534E-01   2.724359629796282E-01   2.758627855378933E-01
   2.793327122176459E-01   2.828462852019898E-01   2.864040534938513E-01
   2.900065730017653E-01   2.936544066267333E-01   2.973481243501812E-01
   3.010883033230187E-01   3.048755279558189E-01   3.087103900101368E-01
   3.125934886909694E-01   3.165254307403865E-01   3.205068305323331E-01
   3.245383101686262E-01   3.286204995761620E-01   3.327540366053396E-01
   3.369395671297301E-01   3.411777451469941E-01   3.454692328810682E-01
   3.498147008856432E-01   3.542148281489345E-01   3.586703021997797E-01
   3.631818192150648E-01   3.677500841285006E-01   3.723758107407756E-01
   3.770597218310826E-01   3.818025492700597E-01   3.866050341341442E-01
   3.914679268213656E-01   3.963919871686011E-01   4.013779845702968E-01
   4.064266980986916E-01   4.115389166255464E-01   4.167154389454057E-01
   4.219570739004151E-01   4.272646405066991E-01   4.326389680823389E-01
   4.380808963769531E-01   4.435912757029080E-01   4.491709670681857E-01
   4.548208423109124E-01   4.605417842355904E-01   4.663346867510356E-01
   4.722004550100500E-01   4.781400055508599E-01   4.841542664403198E-01
   4.902441774189303E-01   4.964106900476730E-01   5.026547678566903E-01
   5.089773864958449E-01   5.153795338871613E-01   5.218622103791953E-01
   5.284264289033389E-01   5.350732151320897E-01   5.418036076393207E-01
   5.486186580625524E-01   5.555194312672797E-01   5.625070055133565E-01
   5.695824726234732E-01   5.767469381537629E-01   5.840015215665387E-01
   5.913473564052198E-01   5.987855904714458E-01   6.063173860044205E-01
   6.139439198625219E-01   6.216663837071794E-01   6.294859841890811E-01
   6.374039431367127E-01   6.454214977472666E-01   6.535399007799649E-01
   6.617604207517963E-01   6.700843421357322E-01   6.785129655614250E-01
   6.870476080184310E-01   6.956896030620003E-01   7.044403010214384E-01
   7.133010692111059E-01   7.222732921440613E-01   7.313583717483892E-01
   7.405577275862645E-01   7.498727970757502E-01   7.593050357154068E-01
   7.688559173117135E-01   7.785269342093484E-01   7.883195975243801E-01
   7.982354373803724E-01   8.082760031474778E-01   8.184428636845269E-01
   8.287376075841603E-01   8.391618434210597E-01   8.497172000032803E-01
   8.604053266267645E-01   8.712278933330438E-01   8.821865911701818E-01
   8.932831324570145E-01   9.045192510506904E-01   9.158967026176018E-01
   9.274172649077052E-01   9.390827380322937E-01   9.508949447452802E-01
   9.628557307279922E-01   9.749669648775756E-01   9.872305395990086E-01
   9.996483711007884E-01   1.012222399694355E+00   1.024954590097254E+00
   1.037846931740143E+00   1.050901439077633E+00   1.064120151903053E+00
   1.077505135667179E+00   1.091058481800953E+00   1.104782308042284E+00
   1.118678758766945E+00   1.132750005323631E+00   1.146998246373249E+00
   1.161425708232447E+00   1.176034645221494E+00   1.190827340016521E+00
   1.205806104006181E+00   1.220973277652825E+00   1.236331230858190E+00
   1.251882363333712E+00   1.267629104975481E+00   1.283573916243912E+00
   1.299719288548210E+00   1.316067744635640E+00   1.332621838985731E+00
   1.349384158209405E+00   1.366357321453141E+00   1.383543980808231E+00
   1.400946821725163E+00   1.418568563433238E+00   1.436411959365452E+00
   1.454479797588717E+00   1.472774901239520E+00   1.491300128965023E+00
   1.510058375369750E+00   1.529052571467869E+00   1.548285685141159E+00
   1.567760721602766E+00   1.587480723866756E+00   1.607448773223604E+00
   1.627667989721651E+00   1.648141532654605E+00   1.668872601055210E+00
   1.689864434195074E+00   1.711120312090837E+00   1.732643556016669E+00
   1.754437529023215E+00   1.776505636463106E+00   1.798851326523020E+00
   1.821478090762494E+00   1.844389464659479E+00   1.867589028162754E+00
   1.891080406251322E+00   1.914867269500796E+00   1.938953334656957E+00
   1.963342365216493E+00   1.988038172015042E+00   2.013044613822666E+00
   2.038365597946768E+00   2.064005080842637E+00   2.089967068731641E+00
   2.116255618227202E+00   2.142874836968671E+00   2.169828884263124E+00
   2.197121971735295E+00   2.224758363985633E+00   2.252742379256646E+00
   2.281078390107661E+00   2.309770824098017E+00   2.338824164478904E+00
   2.368242950893869E+00   2.398031780088134E+00   2.428195306626877E+00
   2.458738243622477E+00   2.489665363470985E+00   2.520981498597803E+00
   2.552691542212750E+00   2.584800449074663E+00   2.617313236265557E+00
   2.650234983974582E+00   2.683570836291803E+00   2.717326002011957E+00
   2.751505755448374E+00   2.786115437257056E+00   2.821160455271205E+00
   2.856646285346191E+00   2.892578472215149E+00   2.928962630355392E+00
   2.965804444865645E+00   3.003109672354383E+00   3.040884141839306E+00
   3.079133755658113E+00   3.117864490390794E+00   3.157082397793436E+00
   3.196793605743869E+00   3.237004319199131E+00   3.277720821165000E+00
   3.318949473677756E+00   3.360696718798223E+00   3.402969079618392E+00
   3.445773161280653E+00   3.489115652009838E+00   3.533003324158317E+00
   3.577443035264140E+00   3.622441729122587E+00   3.668006436871131E+00
   3.714144278088047E+00   3.760862461904906E+00   3.808168288132965E+00
   3.856069148403823E+00   3.904572527324360E+00   3.953686003646199E+00
   4.003417251449951E+00   4.053774041344251E+00   4.104764241679979E+00
   4.156395819779683E+00   4.208676843182475E+00   4.261615480904640E+00
   4.315220004716013E+00   4.369498790432506E+00   4.424460319224827E+00
   4.480113178943653E+00   4.536466065461558E+00   4.593527784031695E+00
   4.651307250663693E+00   4.709813493516772E+00   4.769055654310395E+00
   4.829042989752732E+00   4.889784872986974E+00   4.951290795055963E+00
   5.013570366385170E+00   5.076633318284302E+00   5.140489504467917E+00
   5.205148902595003E+00   5.270621615828077E+00   5.336917874411796E+00
   5.404048037271425E+00   5.472022593631510E+00   5.540852164654757E+00
   5.610547505101682E+00   5.681119505011036E+00   5.752579191401367E+00
   5.824937729994077E+00   5.898206426958016E+00   5.972396730676161E+00
   6.047520233534421E+00   6.123588673732935E+00   6.200613937120269E+00
   6.278608059050514E+00   6.357583226263912E+00   6.437551778791030E+00
   6.518526211880872E+00   6.600519177953379E+00   6.683543488576288E+00
   6.767612116467063E+00   6.852738197519860E+00   6.938935032858014E+00
   7.026216090912436E+00   7.114595009525999E+00   7.204085598084555E+00
   7.294701839674652E+00   7.386457893268371E+00   7.479368095935791E+00
   7.573446965085081E+00   7.668709200730962E+00   7.765169687791582E+00
   7.862843498414266E+00   7.961745894330670E+00   8.061892329241347E+00
   8.163298451230517E+00   8.265980105211064E+00   8.369953335400304E+00
   8.475234387827015E+00   8.581839712869810E+00   8.689785967827628E+00
   8.799090019522442E+00   8.909768946934678E+00   9.021840043871954E+00
   9.135320821671145E+00   9.250229011934678E+00   9.366582569301078E+00
   9.484399674250376E+00   9.603698735944953E+00   9.724498395105883E+00
   9.846817526925692E+00   9.970675244017606E+00   1.009609089940188E+01
   1.022308408952985E+01   1.035167465734583E+01   1.048188269538766E+01
   1.061372854892622E+01   1.074723281914432E+01   1.088241636635586E+01
   1.101930031326506E+01   1.115790604826716E+01   1.129825522879025E+01
   1.144036978467930E+01   1.158427192162284E+01   1.172998412462250E+01
   1.187752916150646E+01   1.202693008648695E+01   1.217821024376242E+01
   1.233139327116526E+01   1.248650310385510E+01   1.264356397805892E+01
   1.280260043485785E+01   1.296363732402181E+01   1.312669980789239E+01
   1.329181336531441E+01   1.345900379561717E+01   1.362829722264556E+01
   1.379972009884196E+01   1.397329920937958E+01   1.414906167634754E+01
   1.432703496298891E+01   1.450724687799186E+01   1.468972557983469E+01
   1.487449958118587E+01   1.506159775335899E+01   1.525104933082413E+01
   1.544288391577575E+01   1.563713148275796E+01   1.583382238334838E+01
   1.603298735090033E+01   1.623465750534522E+01   1.643886435805502E+01
   1.664563981676586E+01   1.685501619056392E+01   1.706702619493353E+01
   1.728170295686922E+01   1.749908002005186E+01   1.771919135008975E+01